# ODT / DOCX Import + real .odt Writer
#
# Reads the two dominant office container formats into the suite's document
# model, and writes genuine zipped .odt files:
#   - .odt  (LibreOffice): content.xml   -> text:h / text:p / list items
#   - .docx (MS Word):     word/document.xml -> w:p paragraphs, Heading styles,
#     concatenated w:t runs
#
# Parsing is a targeted tag scan (find/strip/unescape), not a general XML DOM —
# enough to import real documents' text structure faithfully.
# ponytail: character-run styling (bold/italic spans) imports as plain text;
# add run-property scanning when styled import matters.

use std.common.archive.zip.{zip_extract, zip_extract_text, zip_write_stored, zip_text_file, ZipFile}
use common.rich_text.attributed_text.{RichDocument, DocBlock, BlockKind, TextSpan, InlineStyle, spans_to_plain_text}
use app.office.odf_export.{document_to_fodt, sheet_to_fods}
use app.office.file_formats.{parse_inline_spans, recalculate_formula_cells}
use app.office.sheets.spreadsheet.{Sheet}
use app.office.sheets.cell.{col_to_letter, parse_cell_ref, CellValue}
use app.office.sheets.cell_format.{FormatSpec, SheetFormats, empty_sheet_formats, formats_get, formats_set}

# rt_file_* externs already back the compiler's own file IO (see
# src/compiler/70.backend/linker/lib_smf_writer.spl); declared locally here
# for the docx image writer/importer's disk round-trip (embed on export,
# restore-if-missing on import). No new runtime surface, no bootstrap needed.
extern fn rt_file_exists(path: text) -> bool
extern fn rt_file_read_bytes(path: text) -> [u8]
extern fn rt_file_write_bytes(path: text, data: [u8]) -> bool

# =========================================================================
# XML helpers
# =========================================================================

fn _find_from(s: text, needle: text, from: i32) -> i32:
    var i = from
    while i + needle.len() <= s.len():
        if s.slice(i, i + needle.len()) == needle:
            return i
        i = i + 1
    -1

fn _strip_tags(s: text) -> text:
    """Remove every <...> span, keeping the character data."""
    var out = ""
    var i = 0
    var in_tag = false
    while i < s.len():
        val ch = s.slice(i, i + 1)
        if ch == "<":
            in_tag = true
        elif ch == ">":
            in_tag = false
        elif not in_tag:
            out = "{out}{ch}"
        i = i + 1
    out

fn _xml_unescape(s: text) -> text:
    var r = s
    r = r.replace("&lt;", "<")
    r = r.replace("&gt;", ">")
    r = r.replace("&quot;", "\"")
    r = r.replace("&apos;", "'")
    r = r.replace("&amp;", "&")
    r

fn _span(s: text) -> TextSpan:
    TextSpan(text: s, style: InlineStyle.Normal, link_url: "", footnote_id: "")

fn _plain_block(kind: BlockKind, content: text) -> DocBlock:
    DocBlock(kind: kind, spans: [_span(content)])

# =========================================================================
# ODT import
# =========================================================================

fn _odf_heading_kind(level_attr: text) -> BlockKind:
    if level_attr.contains("\"1\""):
        return BlockKind.Heading1
    if level_attr.contains("\"2\""):
        return BlockKind.Heading2
    BlockKind.Heading3

fn odt_content_to_document(content_xml: text, title: text) -> RichDocument:
    """Parse ODF content.xml into a RichDocument (headings, paragraphs, lists)."""
    var doc = RichDocument.new(title)
    var i = 0
    while i < content_xml.len():
        val h = _find_from(content_xml, "<text:h", i)
        val p = _find_from(content_xml, "<text:p", i)
        if h < 0 and p < 0:
            break
        val is_heading = h >= 0 and (p < 0 or h < p)
        val start = if is_heading: h else: p
        val close = if is_heading: "</text:h>" else: "</text:p>"
        val tag_end = _find_from(content_xml, ">", start)
        val end_pos = _find_from(content_xml, close, start)
        if tag_end < 0 or end_pos < 0:
            break
        val attrs = content_xml.slice(start, tag_end)
        val inner = content_xml.slice(tag_end + 1, end_pos)
        val content = _xml_unescape(_strip_tags(inner))
        # A text:p inside a list item becomes a bullet
        val before = content_xml.slice(_max0(start - 40), start)
        if is_heading:
            doc.blocks.push(_plain_block(_odf_heading_kind(attrs), content))
        elif before.contains("<text:list-item>"):
            doc.blocks.push(_plain_block(BlockKind.BulletItem, content))
        elif content.trim() != "":
            doc.blocks.push(_plain_block(BlockKind.Paragraph, content))
        i = end_pos + close.len()
    doc

fn _max0(v: i32) -> i32:
    if v < 0:
        return 0
    v

fn odt_bytes_to_document(zip_bytes: [u8], title: text) -> RichDocument:
    """Import a real .odt file (zip container) into a RichDocument."""
    odt_content_to_document(zip_extract_text(zip_bytes, "content.xml"), title)

# =========================================================================
# DOCX import
# =========================================================================

fn _docx_para_kind(para_xml: text) -> BlockKind:
    if para_xml.contains("<w:numPr>") or para_xml.contains("<w:numPr "):
        return BlockKind.OrderedItem
    if para_xml.contains("w:val=\"Heading1\""):
        return BlockKind.Heading1
    if para_xml.contains("w:val=\"Heading2\""):
        return BlockKind.Heading2
    if para_xml.contains("w:val=\"Heading3\""):
        return BlockKind.Heading3
    if para_xml.contains("w:val=\"ListParagraph\""):
        return BlockKind.BulletItem
    BlockKind.Paragraph

struct _DocxRelEntry:
    """One parsed word/_rels/document.xml.rels <Relationship>: its rId and
    Target (an absolute URL for hyperlinks, a `media/imageN.png`-relative
    path for images)."""
    id: text
    target: text

fn _parse_docx_rels(rels_xml: text) -> [_DocxRelEntry]:
    """Parse every self-closing <Relationship Id=".." ... Target=".."/> in a
    _rels part. Type is not tracked — callers already know from context
    (hyperlink r:id vs image r:embed) which id they are resolving."""
    var out: [_DocxRelEntry] = []
    var i = 0
    while true:
        val s = _find_from(rels_xml, "<Relationship ", i)
        if s < 0:
            break
        val e = _find_from(rels_xml, "/>", s)
        if e < 0:
            break
        val tag = rels_xml.slice(s, e + 2)
        out.push(_DocxRelEntry(id: _xml_attr(tag, "Id"), target: _xml_attr(tag, "Target")))
        i = e + 2
    out

fn _docx_rel_target(rels: [_DocxRelEntry], rid: text) -> text:
    """The Target for a given rId, or "" if unresolved (e.g. the 2-arg
    `docx_document_xml_to_document` path, which has no rels at all)."""
    if rid == "":
        return ""
    var i = 0
    while i < rels.len():
        if rels[i].id == rid:
            return rels[i].target
        i = i + 1
    ""

fn _docx_runs_in(region: text) -> [TextSpan]:
    """Every <w:r> run's styled span within `region` (w:b -> Bold, w:i ->
    Italic; bold wins when both are set — the span model carries one style).
    link_url is always "" here; hyperlink wrapping is applied by the caller.
    A run holding a <w:footnoteReference w:id="N"/> (no <w:t>) becomes an
    empty-text span carrying footnote_id=N instead — the footnote reference
    marker, matching how a link span carries its url instead of visible
    text. A run holding only the in-footnote auto-number marker
    (<w:footnoteRef/>, no "erence" suffix, no <w:t>) has neither and is
    skipped, same as any other run with no extractable content."""
    var spans: [TextSpan] = []
    var i = 0
    while i < region.len():
        val r = _find_from(region, "<w:r>", i)
        val r2 = _find_from(region, "<w:r ", i)
        val start = if r >= 0 and (r2 < 0 or r < r2): r else: r2
        if start < 0:
            break
        val end_pos = _find_from(region, "</w:r>", start)
        if end_pos < 0:
            break
        val run = region.slice(start, end_pos)
        val t = _find_from(run, "<w:t", 0)
        if t >= 0:
            val tag_end = _find_from(run, ">", t)
            val te = _find_from(run, "</w:t>", t)
            if tag_end >= 0 and te > tag_end:
                val content = _xml_unescape(run.slice(tag_end + 1, te))
                var style = InlineStyle.Normal
                if run.contains("<w:b/>") or run.contains("<w:b "):
                    style = InlineStyle.Bold
                elif run.contains("<w:i/>") or run.contains("<w:i "):
                    style = InlineStyle.Italic
                spans.push(TextSpan(text: content, style: style, link_url: "", footnote_id: ""))
        else:
            val fr = _find_from(run, "<w:footnoteReference", 0)
            if fr >= 0:
                val fr_end = _find_from(run, "/>", fr)
                if fr_end >= 0:
                    val fid = _xml_attr(run.slice(fr, fr_end + 2), "w:id")
                    spans.push(TextSpan(text: "", style: InlineStyle.Normal, link_url: "", footnote_id: fid))
        i = end_pos + 6
    spans

fn _docx_para_spans(para_xml: text, rels: [_DocxRelEntry]) -> [TextSpan]:
    """Every run in the paragraph as a styled span, resolving <w:hyperlink
    r:id="..."> wrappers to their external URL (via `rels`; unresolved ids
    degrade to a plain, non-linked span rather than failing)."""
    var spans: [TextSpan] = []
    var i = 0
    while i < para_xml.len():
        val h = _find_from(para_xml, "<w:hyperlink", i)
        if h < 0:
            for sp in _docx_runs_in(para_xml.slice(i, para_xml.len())):
                spans.push(sp)
            i = para_xml.len()
            continue
        for sp in _docx_runs_in(para_xml.slice(i, h)):
            spans.push(sp)
        val tag_end = _find_from(para_xml, ">", h)
        val hclose = _find_from(para_xml, "</w:hyperlink>", h)
        if tag_end < 0 or hclose < 0:
            i = para_xml.len()
            continue
        val attrs = para_xml.slice(h, tag_end)
        val url = _docx_rel_target(rels, _xml_attr(attrs, "r:id"))
        val inner = para_xml.slice(tag_end + 1, hclose)
        for sp in _docx_runs_in(inner):
            spans.push(TextSpan(text: sp.text, style: sp.style, link_url: url, footnote_id: sp.footnote_id))
        i = hclose + 14
    if spans.len() == 0:
        spans.push(_span(""))
    spans

fn _docx_para_text(para_xml: text, rels: [_DocxRelEntry]) -> text:
    """Concatenate every run's text within one paragraph."""
    var out = ""
    for span in _docx_para_spans(para_xml, rels):
        out = "{out}{span.text}"
    out

struct _MdImage:
    """Result of matching a paragraph's plain text against the whole-block
    `![alt](src)` image convention (mirrors html_render.spl's `_image_html`)."""
    is_image: bool
    alt: text
    src: text

fn _parse_md_image(plain: text) -> _MdImage:
    val t = plain.trim()
    if not t.starts_with("!["):
        return _MdImage(is_image: false, alt: "", src: "")
    val close_bracket = _find_from(t, "](", 0)
    if close_bracket < 0 or not t.ends_with(")"):
        return _MdImage(is_image: false, alt: "", src: "")
    val alt = t.slice(2, close_bracket)
    val src = t.slice(close_bracket + 2, t.len() - 1)
    if src.contains("\"") or src.contains("<") or src.contains(">"):
        return _MdImage(is_image: false, alt: "", src: "")
    _MdImage(is_image: true, alt: alt, src: src)

fn _docx_drawing_image(para_xml: text, rels: [_DocxRelEntry], zip_bytes: [u8]) -> DocBlock?:
    """If `para_xml` contains a <w:drawing>, reconstruct the original
    ![alt](src) Paragraph block from the wp:docPr name/descr attributes
    (where the writer stashes alt/src losslessly — see `_docx_drawing_xml`),
    and restore the embedded PNG bytes to `src` on disk if that path is
    currently missing (e.g. a fresh checkout opening a .docx someone else
    produced). Returns nil for paragraphs with no drawing."""
    val d = _find_from(para_xml, "<w:drawing>", 0)
    if d < 0:
        return nil
    val docpr_s = _find_from(para_xml, "<wp:docPr", d)
    if docpr_s < 0:
        return nil
    val docpr_e = _find_from(para_xml, "/>", docpr_s)
    if docpr_e < 0:
        return nil
    val docpr_tag = para_xml.slice(docpr_s, docpr_e + 2)
    val alt = _xml_unescape(_xml_attr(docpr_tag, "name"))
    val src = _xml_unescape(_xml_attr(docpr_tag, "descr"))
    val blip_s = _find_from(para_xml, "<a:blip ", d)
    if blip_s >= 0 and src != "":
        val blip_e = _find_from(para_xml, "/>", blip_s)
        if blip_e >= 0:
            val rid = _xml_attr(para_xml.slice(blip_s, blip_e + 2), "r:embed")
            val target = _docx_rel_target(rels, rid)
            if target != "" and not rt_file_exists(src):
                val media_bytes = zip_extract(zip_bytes, "word/{target}")
                if media_bytes != nil:
                    rt_file_write_bytes(src, media_bytes)
    Some(_plain_block(BlockKind.Paragraph, "![{alt}]({src})"))

fn _docx_document_xml_to_document_with_rels(document_xml: text, rels: [_DocxRelEntry], zip_bytes: [u8], title: text) -> RichDocument:
    var doc = RichDocument.new(title)
    var i = 0
    while i < document_xml.len():
        val p = _find_from(document_xml, "<w:p ", i)
        val p2 = _find_from(document_xml, "<w:p>", i)
        val start = if p >= 0 and (p2 < 0 or p < p2): p else: p2
        if start < 0:
            break
        val end_pos = _find_from(document_xml, "</w:p>", start)
        if end_pos < 0:
            break
        val para = document_xml.slice(start, end_pos)
        val img_block = _docx_drawing_image(para, rels, zip_bytes)
        if img_block != nil:
            doc.blocks.push(img_block)
        else:
            val content = _docx_para_text(para, rels)
            if content.trim() != "":
                doc.blocks.push(DocBlock(kind: _docx_para_kind(para), spans: _docx_para_spans(para, rels)))
        i = end_pos + 6
    doc

fn docx_document_xml_to_document(document_xml: text, title: text) -> RichDocument:
    """Parse OOXML word/document.xml into a RichDocument. No rels/zip access
    at this level: w:hyperlink r:id and w:drawing r:embed can't be resolved
    to a URL/media path here, so hyperlinks degrade to plain (non-linked)
    spans and drawings are skipped as ordinary (empty) paragraphs. Use
    `docx_bytes_to_document` for the full container, which resolves both."""
    _docx_document_xml_to_document_with_rels(document_xml, [], [], title)

fn _footnote_def_id(fn_def: DocBlock) -> text:
    if fn_def.spans.len() > 0:
        return fn_def.spans[0].footnote_id
    ""

fn _footnote_def_text(fn_def: DocBlock) -> text:
    spans_to_plain_text(fn_def.spans)

fn _parse_footnotes_xml(footnotes_xml: text) -> [DocBlock]:
    """Every real (non-separator) <w:footnote w:id="N">...</w:footnote> in
    word/footnotes.xml, reconstructed as a FootnoteDef block. The two
    mandatory separator footnotes (w:id -1/0, both carrying a w:type) are
    skipped. The note text is whatever `_docx_runs_in` finds inside the
    footnote's paragraph — the auto-number marker run (<w:footnoteRef/>) has
    no <w:t> and is naturally skipped there, so only the real text survives."""
    var out: [DocBlock] = []
    var i = 0
    while true:
        val s = _find_from(footnotes_xml, "<w:footnote ", i)
        if s < 0:
            break
        val tag_end = _find_from(footnotes_xml, ">", s)
        val e = _find_from(footnotes_xml, "</w:footnote>", s)
        if tag_end < 0 or e < 0:
            break
        val open_tag = footnotes_xml.slice(s, tag_end + 1)
        val fid = _xml_attr(open_tag, "w:id")
        val ftype = _xml_attr(open_tag, "w:type")
        if ftype == "":
            val inner = footnotes_xml.slice(tag_end + 1, e)
            val spans = _docx_runs_in(inner)
            val text_content = spans_to_plain_text(spans)
            out.push(DocBlock(kind: BlockKind.FootnoteDef, spans: [TextSpan(text: text_content, style: InlineStyle.Normal, link_url: "", footnote_id: fid)]))
        i = e + 13
    out

fn docx_bytes_to_document(zip_bytes: [u8], title: text) -> RichDocument:
    """Import a real .docx file (zip container) into a RichDocument. Resolves
    w:hyperlink r:id -> external URL and w:drawing r:embed -> media bytes via
    word/_rels/document.xml.rels, and word/footnotes.xml (if present) into
    FootnoteDef blocks appended after the body's paragraphs (matching where
    footnote definitions conventionally sit in markdown source — see
    file_formats.spl's document_to_markdown)."""
    val rels = _parse_docx_rels(zip_extract_text(zip_bytes, "word/_rels/document.xml.rels"))
    var doc = _docx_document_xml_to_document_with_rels(zip_extract_text(zip_bytes, "word/document.xml"), rels, zip_bytes, title)
    val footnotes_xml = zip_extract_text(zip_bytes, "word/footnotes.xml")
    if footnotes_xml != "":
        for fd in _parse_footnotes_xml(footnotes_xml):
            doc.blocks.push(fd)
    doc

struct DocxHeaderFooter:
    """Header/footer plain text read back from a .docx's word/header1.xml
    and word/footer1.xml parts (see `document_to_docx_bytes_hf`). "" for
    either part means it wasn't present in the container."""
    header_text: text
    footer_text: text

fn docx_bytes_to_header_footer(zip_bytes: [u8]) -> DocxHeaderFooter:
    """Read header1.xml/footer1.xml back to plain text (tags stripped,
    entities unescaped; the footer's PAGE field carries no literal text so
    it disappears here, same as it would in a plain-text extraction)."""
    val header_xml = zip_extract_text(zip_bytes, "word/header1.xml")
    val footer_xml = zip_extract_text(zip_bytes, "word/footer1.xml")
    DocxHeaderFooter(
        header_text: _xml_unescape(_strip_tags(header_xml)),
        footer_text: _xml_unescape(_strip_tags(footer_xml))
    )

# =========================================================================
# Real .odt writer (zip container)
# =========================================================================

# =========================================================================
# ODS import (Calc)
# =========================================================================

fn _ods_cell_value(cell_xml: text) -> text:
    """The value to store for one table:table-cell — office:value for numbers,
    formula text if present, else the text:p character data."""
    val f = _find_from(cell_xml, "table:formula=\"", 0)
    if f >= 0:
        val fe = _find_from(cell_xml, "\"", f + 15)
        if fe > f:
            var formula = _xml_unescape(cell_xml.slice(f + 15, fe))
            if formula.starts_with("of:="):
                formula = "={formula.slice(4, formula.len())}"
            return formula
    val v = _find_from(cell_xml, "office:value=\"", 0)
    if v >= 0:
        val ve = _find_from(cell_xml, "\"", v + 14)
        if ve > v:
            return cell_xml.slice(v + 14, ve)
    val p = _find_from(cell_xml, "<text:p", 0)
    if p >= 0:
        val tag_end = _find_from(cell_xml, ">", p)
        val pe = _find_from(cell_xml, "</text:p>", p)
        if tag_end >= 0 and pe > tag_end:
            return _xml_unescape(_strip_tags(cell_xml.slice(tag_end + 1, pe)))
    ""

fn ods_content_to_sheet(content_xml: text, name: text) -> Sheet:
    """Parse ODF spreadsheet content.xml (first table) into a Sheet."""
    var sheet = Sheet.new(name)
    var row = 0
    var i = 0
    while i < content_xml.len():
        val r = _find_from(content_xml, "<table:table-row", i)
        if r < 0:
            break
        val r_end = _find_from(content_xml, "</table:table-row>", r)
        if r_end < 0:
            break
        val row_xml = content_xml.slice(r, r_end)
        var col = 0
        var j = 0
        while j < row_xml.len():
            val c = _find_from(row_xml, "<table:table-cell", j)
            if c < 0:
                break
            val tag_end = _find_from(row_xml, ">", c)
            if tag_end < 0:
                break
            val self_closing = row_xml.slice(tag_end - 1, tag_end) == "/"
            var cell_xml = row_xml.slice(c, tag_end)
            var next_j = tag_end + 1
            if not self_closing:
                val c_end = _find_from(row_xml, "</table:table-cell>", c)
                if c_end < 0:
                    break
                cell_xml = row_xml.slice(c, c_end)
                next_j = c_end + 19
            val value = _ods_cell_value(cell_xml)
            if value != "":
                sheet.set_value("{col_to_letter(col)}{row + 1}", value)
            col = col + 1
            j = next_j
        row = row + 1
        i = r_end + 18
    recalculate_formula_cells(sheet)

fn ods_bytes_to_sheet(zip_bytes: [u8], name: text) -> Sheet:
    """Import a real .ods file (zip container) into a Sheet."""
    ods_content_to_sheet(zip_extract_text(zip_bytes, "content.xml"), name)

# =========================================================================
# XLSX import (Excel)
# =========================================================================

fn _xlsx_shared_strings(shared_xml: text) -> [text]:
    """Collect each <si>'s concatenated <t> runs from sharedStrings.xml."""
    var strings: [text] = []
    var i = 0
    while i < shared_xml.len():
        val s = _find_from(shared_xml, "<si>", i)
        if s < 0:
            break
        val e = _find_from(shared_xml, "</si>", s)
        if e < 0:
            break
        val si = shared_xml.slice(s, e)
        var out = ""
        var j = 0
        while j < si.len():
            val t = _find_from(si, "<t", j)
            if t < 0:
                break
            val tag_end = _find_from(si, ">", t)
            val te = _find_from(si, "</t>", t)
            if tag_end < 0 or te < 0:
                break
            out = "{out}{_xml_unescape(si.slice(tag_end + 1, te))}"
            j = te + 4
        strings.push(out)
        i = e + 5
    strings

fn xlsx_sheet_xml_to_sheet(sheet_xml: text, shared: [text], name: text) -> Sheet:
    """Parse one OOXML worksheet: <c r="A1" t="s"><v>idx</v></c> cells."""
    var sheet = Sheet.new(name)
    var i = 0
    while i < sheet_xml.len():
        val c = _find_from(sheet_xml, "<c ", i)
        if c < 0:
            break
        val tag_end = _find_from(sheet_xml, ">", c)
        if tag_end < 0:
            break
        val attrs = sheet_xml.slice(c, tag_end)
        # cell ref
        var ref_str = ""
        val ra = _find_from(attrs, "r=\"", 0)
        if ra >= 0:
            val re = _find_from(attrs, "\"", ra + 3)
            if re > ra:
                ref_str = attrs.slice(ra + 3, re)
        val is_shared = attrs.contains("t=\"s\"")
        val is_inline = attrs.contains("t=\"inlineStr\"")
        val c_end = _find_from(sheet_xml, "</c>", c)
        if is_inline and ref_str != "" and c_end > c:
            # inline string: <is><t>text</t></is>
            val cell_xml = sheet_xml.slice(c, c_end)
            val t = _find_from(cell_xml, "<t", 0)
            if t >= 0:
                val t_end = _find_from(cell_xml, ">", t)
                val te = _find_from(cell_xml, "</t>", t)
                if t_end >= 0 and te > t_end:
                    sheet.set_value(ref_str, _xml_unescape(cell_xml.slice(t_end + 1, te)))
        else:
            val v = _find_from(sheet_xml, "<v>", tag_end)
            if ref_str != "" and v >= 0 and c_end > v:
                val ve = _find_from(sheet_xml, "</v>", v)
                if ve > v and ve < c_end:
                    var value = _xml_unescape(sheet_xml.slice(v + 3, ve))
                    if is_shared:
                        val idx = value.to_i64().to_i32()
                        if idx >= 0 and idx < shared.len():
                            value = shared[idx]
                    sheet.set_value(ref_str, value)
        i = if c_end > c: c_end + 4 else: tag_end + 1
    sheet

fn xlsx_bytes_to_sheet(zip_bytes: [u8], name: text) -> Sheet:
    """Import a real .xlsx file: worksheet 1 + shared strings."""
    val shared = _xlsx_shared_strings(zip_extract_text(zip_bytes, "xl/sharedStrings.xml"))
    xlsx_sheet_xml_to_sheet(zip_extract_text(zip_bytes, "xl/worksheets/sheet1.xml"), shared, name)

# =========================================================================
# Real .xlsx writer
# =========================================================================

fn _xml_escape_x(s: text) -> text:
    var r = s
    r = r.replace("&", "&amp;")
    r = r.replace("<", "&lt;")
    r = r.replace(">", "&gt;")
    r = r.replace("\"", "&quot;")
    r

fn _xlsx_cell_xml(sheet: Sheet, ref_str: text) -> text:
    val cell = sheet.get_cell(ref_str)
    match cell.value:
        CellValue.NumberVal(value):
            return "<c r=\"{ref_str}\"><v>{value}</v></c>"
        CellValue.FormulaVal(expr, cached_display):
            val f = _xml_escape_x(expr)
            return "<c r=\"{ref_str}\"><f>{f}</f><v>{_xml_escape_x(cached_display)}</v></c>"
        CellValue.BoolVal(value):
            val b = if value: "1" else: "0"
            return "<c r=\"{ref_str}\" t=\"b\"><v>{b}</v></c>"
        CellValue.Empty:
            return ""
        _:
            val display = _xml_escape_x(cell_display_text_of(sheet, ref_str))
            return "<c r=\"{ref_str}\" t=\"inlineStr\"><is><t>{display}</t></is></c>"

fn cell_display_text_of(sheet: Sheet, ref_str: text) -> text:
    # tiny indirection to keep _xlsx_cell_xml readable
    val cell = sheet.get_cell(ref_str)
    match cell.value:
        CellValue.TextVal(value):
            return value
        _:
            return ""

fn sheet_to_xlsx_bytes(sheet: Sheet) -> [u8]:
    """Build a genuine .xlsx: content types, rels, workbook, one worksheet.
    Text cells use inline strings (no sharedStrings part needed); formulas
    carry both <f> and their cached <v>."""
    val range_str = sheet.used_range()
    val parts = range_str.split(":")
    val start = parse_cell_ref(parts[0])
    val end_ref = parse_cell_ref(parts[1])
    var rows = ""
    if start != nil and end_ref != nil:
        var r = start.row
        while r <= end_ref.row:
            var cells = ""
            var c = start.col
            while c <= end_ref.col:
                val ref_str = "{col_to_letter(c)}{r + 1}"
                cells = "{cells}{_xlsx_cell_xml(sheet, ref_str)}"
                c = c + 1
            rows = "{rows}<row r=\"{r + 1}\">{cells}</row>"
            r = r + 1
    val ws = "<?xml version=\"1.0\" encoding=\"UTF-8\" standalone=\"yes\"?><worksheet xmlns=\"http://schemas.openxmlformats.org/spreadsheetml/2006/main\"><sheetData>{rows}</sheetData></worksheet>"
    val name = _xml_escape_x(sheet.name)
    val wb = "<?xml version=\"1.0\" encoding=\"UTF-8\" standalone=\"yes\"?><workbook xmlns=\"http://schemas.openxmlformats.org/spreadsheetml/2006/main\" xmlns:r=\"http://schemas.openxmlformats.org/officeDocument/2006/relationships\"><sheets><sheet name=\"{name}\" sheetId=\"1\" r:id=\"rId1\"/></sheets></workbook>"
    val wb_rels = "<?xml version=\"1.0\" encoding=\"UTF-8\" standalone=\"yes\"?><Relationships xmlns=\"http://schemas.openxmlformats.org/package/2006/relationships\"><Relationship Id=\"rId1\" Type=\"http://schemas.openxmlformats.org/officeDocument/2006/relationships/worksheet\" Target=\"worksheets/sheet1.xml\"/></Relationships>"
    val root_rels = "<?xml version=\"1.0\" encoding=\"UTF-8\" standalone=\"yes\"?><Relationships xmlns=\"http://schemas.openxmlformats.org/package/2006/relationships\"><Relationship Id=\"rId1\" Type=\"http://schemas.openxmlformats.org/officeDocument/2006/relationships/officeDocument\" Target=\"xl/workbook.xml\"/></Relationships>"
    val types = "<?xml version=\"1.0\" encoding=\"UTF-8\" standalone=\"yes\"?><Types xmlns=\"http://schemas.openxmlformats.org/package/2006/content-types\"><Default Extension=\"rels\" ContentType=\"application/vnd.openxmlformats-package.relationships+xml\"/><Default Extension=\"xml\" ContentType=\"application/xml\"/><Override PartName=\"/xl/workbook.xml\" ContentType=\"application/vnd.openxmlformats-officedocument.spreadsheetml.sheet.main+xml\"/><Override PartName=\"/xl/worksheets/sheet1.xml\" ContentType=\"application/vnd.openxmlformats-officedocument.spreadsheetml.worksheet+xml\"/></Types>"
    var files: [ZipFile] = []
    files.push(zip_text_file("[Content_Types].xml", types))
    files.push(zip_text_file("_rels/.rels", root_rels))
    files.push(zip_text_file("xl/workbook.xml", wb))
    files.push(zip_text_file("xl/_rels/workbook.xml.rels", wb_rels))
    files.push(zip_text_file("xl/worksheets/sheet1.xml", ws))
    zip_write_stored(files)

# =========================================================================
# XLSX styles (styles.xml): per-cell number formats + bold/bg/fg
#
# `sheet_to_xlsx_bytes_formatted` is a sibling of `sheet_to_xlsx_bytes` (which
# stays untouched/byte-identical for unformatted output) that additionally
# emits `xl/styles.xml` and references it from each `<c>` via `s="<xf idx>"`.
# Verification ceiling: no LibreOffice/Excel is available in this environment,
# so acceptance here is structural (zip integrity + well-formed XML, checked
# with the system `unzip -t` / `unzip -p`) plus our own importer reading the
# bytes back into an equal SheetFormats. Visual rendering in a real
# spreadsheet app was NOT verified.
# =========================================================================

struct SheetWithFormats:
    """A Sheet plus the SheetFormats read back from an .xlsx's styles.xml.
    (Sheet is a `class` -- heap identity -- so embedding it here is safe
    under this struct's copy-on-return semantics; see cell_format.spl's
    module docstring for why SheetFormats itself must avoid Dict fields.)"""
    sheet: Sheet
    formats: SheetFormats

struct _XlsxFont:
    bold: bool
    fg: text

struct _XlsxNumFmt:
    id: i32
    code: text

struct _XlsxXf:
    num_fmt_id: i32
    font_id: i32
    fill_id: i32

fn _xlsx_spec_eq(a: FormatSpec, b: FormatSpec) -> bool: